<?xml version="1.0" encoding="UTF-8"?>

<!-- generated on 2023-03-06 18:47:22 by Eclipse SUMO sumo Version 1.16.0
<configuration xmlns:xsi="http://www.w3.org/2001/XMLSchema-instance" xsi:noNamespaceSchemaLocation="http://sumo.dlr.de/xsd/sumoConfiguration.xsd">

    <input>
        <net-file value="/home/eigho/TSP/2A/Cassiop/SUMO_DOCS/tuto/osmWebWizard/2023-03-06-18-47-20/osm.net.xml.gz"/>
        <route-files value="/home/eigho/TSP/2A/Cassiop/SUMO_DOCS/tuto/osmWebWizard/2023-03-06-18-47-20/trips.trips.xml"/>
        <additional-files value="/home/eigho/TSP/2A/Cassiop/SUMO_DOCS/tuto/osmWebWizard/2023-03-06-18-47-20/osm_stops.add.xml"/>
    </input>

    <output>
        <vehroute-output value="/home/eigho/TSP/2A/Cassiop/SUMO_DOCS/tuto/osmWebWizard/2023-03-06-18-47-20/vehroutes.xml"/>
        <stop-output value="/home/eigho/TSP/2A/Cassiop/SUMO_DOCS/tuto/osmWebWizard/2023-03-06-18-47-20/stopinfos.xml"/>
    </output>

    <time>
        <begin value="0.0"/>
    </time>

    <processing>
        <ignore-route-errors value="true"/>
    </processing>

    <routing>
        <device.rerouting.adaptation-interval value="0"/>
    </routing>

    <report>
        <aggregate-warnings value="5"/>
        <error-log value="/home/eigho/TSP/2A/Cassiop/SUMO_DOCS/tuto/osmWebWizard/2023-03-06-18-47-20/trips.trips.xml.errorlog"/>
        <no-step-log value="true"/>
    </report>

</configuration>
-->

<routes xmlns:xsi="http://www.w3.org/2001/XMLSchema-instance" xsi:noNamespaceSchemaLocation="http://sumo.dlr.de/xsd/routes_file.xsd">
</routes>
